
     Program BANDS v.7.2 starts on 26May2023 at 19:25: 3 

     This program is part of the open-source Quantum ESPRESSO suite
     for quantum simulation of materials; please cite
         "P. Giannozzi et al., J. Phys.:Condens. Matter 21 395502 (2009);
         "P. Giannozzi et al., J. Phys.:Condens. Matter 29 465901 (2017);
         "P. Giannozzi et al., J. Chem. Phys. 152 154105 (2020);
          URL http://www.quantum-espresso.org", 
     in publications or presentations arising from this work. More details at
     http://www.quantum-espresso.org/quote

     Parallel version (MPI), running on     1 processors

     MPI processes distributed on     1 nodes
     475 MiB available memory on the printing compute node when the environment starts


     Reading xml data from directory:

     ./tmp/Graphene_1x1_PBE.save/
     file C.pbe-rrkjus.UPF: wavefunction(s)  2S 2P renormalized

     IMPORTANT: XC functional enforced from input :
     Exchange-correlation= PBE
                           (   1   4   3   4   0   0   0)
     Any further DFT definition will be discarded
     Please, verify this is what you really want


     G-vector sticks info
     --------------------
     sticks:   dense  smooth     PW     G-vecs:    dense   smooth      PW
     Sum         301     121     37                12531     3147     647

     Using Slab Decomposition


     negative rho (up, down):  1.264E-05 0.000E+00
     Reading collected, re-writing distributed wavefunctions
     high-symmetry point:  0.0000 0.0000 0.0000   x coordinate   0.0000
     high-symmetry point:  0.3333 0.5774 0.0000   x coordinate   0.6667
     high-symmetry point:  0.0000 0.5774 0.0000   x coordinate   1.0000
     high-symmetry point:  0.0000 0.0000 0.0000   x coordinate   1.5774

     Plottable bands (eV) written to file graphene.bands.dat.gnu
     Bands written to file graphene.bands.dat

 **************************************************************************

                    xk=(   0.00000,   0.00000,   0.00000  )

     point group D_6h(6/mmm)
     there are 12 classes
     the character table:

       E     2C6   2C3   C2    3C2'  3C2'' i     2S3   2S6   s_h   3s_d  3s_v 
A_1g   1.00  1.00  1.00  1.00  1.00  1.00  1.00  1.00  1.00  1.00  1.00  1.00
A_2g   1.00  1.00  1.00  1.00 -1.00 -1.00  1.00  1.00  1.00  1.00 -1.00 -1.00
B_1g   1.00 -1.00  1.00 -1.00  1.00 -1.00  1.00 -1.00  1.00 -1.00  1.00 -1.00
B_2g   1.00 -1.00  1.00 -1.00 -1.00  1.00  1.00 -1.00  1.00 -1.00 -1.00  1.00
E_1g   2.00  1.00 -1.00 -2.00  0.00  0.00  2.00  1.00 -1.00 -2.00  0.00  0.00
E_2g   2.00 -1.00 -1.00  2.00  0.00  0.00  2.00 -1.00 -1.00  2.00  0.00  0.00
A_1u   1.00  1.00  1.00  1.00  1.00  1.00 -1.00 -1.00 -1.00 -1.00 -1.00 -1.00
A_2u   1.00  1.00  1.00  1.00 -1.00 -1.00 -1.00 -1.00 -1.00 -1.00  1.00  1.00
B_1u   1.00 -1.00  1.00 -1.00  1.00 -1.00 -1.00  1.00 -1.00  1.00 -1.00  1.00
B_2u   1.00 -1.00  1.00 -1.00 -1.00  1.00 -1.00  1.00 -1.00  1.00  1.00 -1.00
E_1u   2.00  1.00 -1.00 -2.00  0.00  0.00 -2.00 -1.00  1.00  2.00  0.00  0.00
E_2u   2.00 -1.00 -1.00  2.00  0.00  0.00 -2.00  1.00  1.00 -2.00  0.00  0.00

     the symmetry operations in each class and the name of the first element:

     E        1
                                                                 
     2C6      5    6
                                                                 
     2C3      7    8
                                                                 
     C2       2
                                                                 
     3C2'     4   12   11
                                                                 
     3C2''    3    9   10
                                                                 
     i       13
                                                                 
     2S3     17   18
                                                                 
     2S6     19   20
                                                                 
     s_h     14
                                                                 
     3s_d    16   24   23
                                                                 
     3s_v    15   21   22
                                                                 

     Band symmetry, D_6h(6/mmm) point group:

     e(  1 -  1) =    -18.62157  eV     1   --> A_1g           
     e(  2 -  2) =     -6.68960  eV     1   --> A_2u           
     e(  3 -  4) =     -2.09033  eV     2   --> E_2g           
     e(  5 -  5) =      3.76742  eV     1   --> A_1g           
     e(  6 -  6) =      7.13209  eV     1   --> A_2u           
     e(  7 -  8) =      9.30365  eV     2   --> E_1u           

 **************************************************************************

 **************************************************************************

                    xk=(   0.01667,   0.02887,   0.00000  )

     point group C_2v (mm2) 
     there are  4 classes
     the character table:

       E     C2    s_v   s_v' 
A_1    1.00  1.00  1.00  1.00
A_2    1.00  1.00 -1.00 -1.00
B_1    1.00 -1.00  1.00 -1.00
B_2    1.00 -1.00 -1.00  1.00

     the symmetry operations in each class and the name of the first element:

     E        1
                                                                 
     C2       2
                                                                 
     s_v      3
                                                                 
     s_v'     4
                                                                 

     Band symmetry, C_2v (mm2)  point group:

     e(  1 -  1) =    -18.60192  eV     1   --> A_1  D_1  S_1  
     e(  2 -  2) =     -6.66641  eV     1   --> B_2  D_4  S_4  
     e(  3 -  3) =     -2.18855  eV     1   --> B_1  D_3  S_3  
     e(  4 -  4) =     -2.13545  eV     1   --> A_1  D_1  S_1  
     e(  5 -  5) =      3.79427  eV     1   --> A_1  D_1  S_1  
     e(  6 -  6) =      7.15770  eV     1   --> B_2  D_4  S_4  
     e(  7 -  7) =      9.29369  eV     1   --> A_1  D_1  S_1  
     e(  8 -  8) =      9.38762  eV     1   --> B_1  D_3  S_3  

 **************************************************************************

 **************************************************************************

                    xk=(   0.03333,   0.05774,   0.00000  )

     Band symmetry, C_2v (mm2)  point group:

     e(  1 -  1) =    -18.54292  eV     1   --> A_1  D_1  S_1  
     e(  2 -  2) =     -6.59905  eV     1   --> B_2  D_4  S_4  
     e(  3 -  3) =     -2.42941  eV     1   --> B_1  D_3  S_3  
     e(  4 -  4) =     -2.27280  eV     1   --> A_1  D_1  S_1  
     e(  5 -  5) =      3.87480  eV     1   --> A_1  D_1  S_1  
     e(  6 -  6) =      7.23375  eV     1   --> B_2  D_4  S_4  
     e(  7 -  7) =      9.30086  eV     1   --> A_1  D_1  S_1  
     e(  8 -  8) =      9.56531  eV     1   --> A_1  D_1  S_1  

 **************************************************************************

 **************************************************************************

                    xk=(   0.05000,   0.08660,   0.00000  )

     Band symmetry, C_2v (mm2)  point group:

     e(  1 -  1) =    -18.44483  eV     1   --> A_1  D_1  S_1  
     e(  2 -  2) =     -6.49004  eV     1   --> B_2  D_4  S_4  
     e(  3 -  3) =     -2.79673  eV     1   --> B_1  D_3  S_3  
     e(  4 -  4) =     -2.49938  eV     1   --> A_1  D_1  S_1  
     e(  5 -  5) =      4.00903  eV     1   --> A_1  D_1  S_1  
     e(  6 -  6) =      7.35945  eV     1   --> B_2  D_4  S_4  
     e(  7 -  7) =      9.34842  eV     1   --> A_1  D_1  S_1  
     e(  8 -  8) =      9.71543  eV     1   --> A_1  D_1  S_1  

 **************************************************************************

 **************************************************************************

                    xk=(   0.06667,   0.11547,   0.00000  )

     Band symmetry, C_2v (mm2)  point group:

     e(  1 -  1) =    -18.30685  eV     1   --> A_1  D_1  S_1  
     e(  2 -  2) =     -6.32577  eV     1   --> B_2  D_4  S_4  
     e(  3 -  3) =     -3.25138  eV     1   --> B_1  D_3  S_3  
     e(  4 -  4) =     -2.78322  eV     1   --> A_1  D_1  S_1  
     e(  5 -  5) =      4.19707  eV     1   --> A_1  D_1  S_1  
     e(  6 -  6) =      7.53852  eV     1   --> B_2  D_4  S_4  
     e(  7 -  7) =      9.44557  eV     1   --> A_1  D_1  S_1  
     e(  8 -  8) =      9.91271  eV     1   --> A_1  D_1  S_1  

 **************************************************************************

 **************************************************************************

                    xk=(   0.08333,   0.14434,   0.00000  )

     Band symmetry, C_2v (mm2)  point group:

     e(  1 -  1) =    -18.12987  eV     1   --> A_1  D_1  S_1  
     e(  2 -  2) =     -6.11537  eV     1   --> B_2  D_4  S_4  
     e(  3 -  3) =     -3.78395  eV     1   --> B_1  D_3  S_3  
     e(  4 -  4) =     -3.12804  eV     1   --> A_1  D_1  S_1  
     e(  5 -  5) =      4.43886  eV     1   --> A_1  D_1  S_1  
     e(  6 -  6) =      7.76786  eV     1   --> B_2  D_4  S_4  
     e(  7 -  7) =      9.58956  eV     1   --> A_1  D_1  S_1  
     e(  8 -  8) =     10.15539  eV     1   --> A_1  D_1  S_1  

 **************************************************************************

 **************************************************************************

                    xk=(   0.10000,   0.17321,   0.00000  )

     Band symmetry, C_2v (mm2)  point group:

     e(  1 -  1) =    -17.91399  eV     1   --> A_1  D_1  S_1  
     e(  2 -  2) =     -5.86045  eV     1   --> B_2  D_4  S_4  
     e(  3 -  3) =     -4.37280  eV     1   --> B_1  D_3  S_3  
     e(  4 -  4) =     -3.53914  eV     1   --> A_1  D_1  S_1  
     e(  5 -  5) =      4.73414  eV     1   --> A_1  D_1  S_1  
     e(  6 -  6) =      8.04633  eV     1   --> B_2  D_4  S_4  
     e(  7 -  7) =      9.75672  eV     1   --> A_1  D_1  S_1  
     e(  8 -  8) =     10.22598  eV     1   --> A_2  D_2  S_2  

 **************************************************************************

 **************************************************************************

                    xk=(   0.11667,   0.20207,   0.00000  )

     Band symmetry, C_2v (mm2)  point group:

     e(  1 -  1) =    -17.66002  eV     1   --> A_1  D_1  S_1  
     e(  2 -  2) =     -5.56052  eV     1   --> B_2  D_4  S_4  
     e(  3 -  3) =     -4.98441  eV     1   --> B_1  D_3  S_3  
     e(  4 -  4) =     -3.98844  eV     1   --> A_1  D_1  S_1  
     e(  5 -  5) =      5.08321  eV     1   --> A_1  D_1  S_1  
     e(  6 -  6) =      8.37319  eV     1   --> B_2  D_4  S_4  
     e(  7 -  7) =      9.55383  eV     1   --> A_2  D_2  S_2  
     e(  8 -  8) =      9.98034  eV     1   --> A_1  D_1  S_1  

 **************************************************************************

 **************************************************************************

                    xk=(   0.13333,   0.23094,   0.00000  )

     Band symmetry, C_2v (mm2)  point group:

     e(  1 -  1) =    -17.36737  eV     1   --> A_1  D_1  S_1  
     e(  2 -  2) =     -5.59699  eV     1   --> B_1  D_3  S_3  
     e(  3 -  3) =     -5.21760  eV     1   --> B_2  D_4  S_4  
     e(  4 -  4) =     -4.47367  eV     1   --> A_1  D_1  S_1  
     e(  5 -  5) =      5.48561  eV     1   --> A_1  D_1  S_1  
     e(  6 -  6) =      8.74627  eV     1   --> B_2  D_4  S_4  
     e(  7 -  7) =      8.84301  eV     1   --> A_2  D_2  S_2  
     e(  8 -  8) =     10.25225  eV     1   --> A_1  D_1  S_1  

 **************************************************************************

 **************************************************************************

                    xk=(   0.15000,   0.25981,   0.00000  )

     Band symmetry, C_2v (mm2)  point group:

     e(  1 -  1) =    -17.03683  eV     1   --> A_1  D_1  S_1  
     e(  2 -  2) =     -6.21383  eV     1   --> B_1  D_3  S_3  
     e(  3 -  3) =     -4.96447  eV     1   --> A_1  D_1  S_1  
     e(  4 -  4) =     -4.82862  eV     1   --> B_2  D_4  S_4  
     e(  5 -  5) =      5.94163  eV     1   --> A_1  D_1  S_1  
     e(  6 -  6) =      8.12171  eV     1   --> A_2  D_2  S_2  
     e(  7 -  7) =      9.16412  eV     1   --> B_2  D_4  S_4  
     e(  8 -  8) =     10.58959  eV     1   --> A_1  D_1  S_1  

 **************************************************************************

 **************************************************************************

                    xk=(   0.16667,   0.28868,   0.00000  )

     Band symmetry, C_2v (mm2)  point group:

     e(  1 -  1) =    -16.67056  eV     1   --> A_1  D_1  S_1  
     e(  2 -  2) =     -6.83672  eV     1   --> B_1  D_3  S_3  
     e(  3 -  3) =     -5.49645  eV     1   --> A_1  D_1  S_1  
     e(  4 -  4) =     -4.40500  eV     1   --> B_2  D_4  S_4  
     e(  5 -  5) =      6.45052  eV     1   --> A_1  D_1  S_1  
     e(  6 -  6) =      7.36593  eV     1   --> A_2  D_2  S_2  
     e(  7 -  7) =      9.61924  eV     1   --> B_2  D_4  S_4  
     e(  8 -  8) =     10.94558  eV     1   --> A_1  D_1  S_1  

 **************************************************************************

 **************************************************************************

                    xk=(   0.18333,   0.31754,   0.00000  )

     Band symmetry, C_2v (mm2)  point group:

     e(  1 -  1) =    -16.26685  eV     1   --> A_1  D_1  S_1  
     e(  2 -  2) =     -7.43545  eV     1   --> B_1  D_3  S_3  
     e(  3 -  3) =     -6.02425  eV     1   --> A_1  D_1  S_1  
     e(  4 -  4) =     -3.93942  eV     1   --> B_2  D_4  S_4  
     e(  5 -  5) =      6.61968  eV     1   --> A_2  D_2  S_2  
     e(  6 -  6) =      7.01205  eV     1   --> A_1  D_1  S_1  
     e(  7 -  7) =     10.10680  eV     1   --> B_2  D_4  S_4  
     e(  8 -  8) =     11.35227  eV     1   --> A_1  D_1  S_1  

 **************************************************************************

 **************************************************************************

                    xk=(   0.20000,   0.34641,   0.00000  )

     Band symmetry, C_2v (mm2)  point group:

     e(  1 -  1) =    -15.82910  eV     1   --> A_1  D_1  S_1  
     e(  2 -  2) =     -8.01148  eV     1   --> B_1  D_3  S_3  
     e(  3 -  3) =     -6.54631  eV     1   --> A_1  D_1  S_1  
     e(  4 -  4) =     -3.44253  eV     1   --> B_2  D_4  S_4  
     e(  5 -  5) =      5.88660  eV     1   --> A_2  D_2  S_2  
     e(  6 -  6) =      7.62571  eV     1   --> A_1  D_1  S_1  
     e(  7 -  7) =     10.61157  eV     1   --> B_2  D_4  S_4  
     e(  8 -  8) =     11.78641  eV     1   --> A_1  D_1  S_1  

 **************************************************************************

 **************************************************************************

                    xk=(   0.21667,   0.37528,   0.00000  )

     Band symmetry, C_2v (mm2)  point group:

     e(  1 -  1) =    -15.35915  eV     1   --> A_1  D_1  S_1  
     e(  2 -  2) =     -8.57715  eV     1   --> B_1  D_3  S_3  
     e(  3 -  3) =     -7.06626  eV     1   --> A_1  D_1  S_1  
     e(  4 -  4) =     -2.91944  eV     1   --> B_2  D_4  S_4  
     e(  5 -  5) =      5.14246  eV     1   --> A_2  D_2  S_2  
     e(  6 -  6) =      8.29049  eV     1   --> A_1  D_1  S_1  
     e(  7 -  7) =     11.10759  eV     1   --> B_2  D_4  S_4  
     e(  8 -  8) =     12.23840  eV     1   --> A_1  D_1  S_1  

 **************************************************************************

 **************************************************************************

                    xk=(   0.23333,   0.40415,   0.00000  )

     Band symmetry, C_2v (mm2)  point group:

     e(  1 -  1) =    -14.85777  eV     1   --> A_1  D_1  S_1  
     e(  2 -  2) =     -9.10870  eV     1   --> B_1  D_3  S_3  
     e(  3 -  3) =     -7.56235  eV     1   --> A_1  D_1  S_1  
     e(  4 -  4) =     -2.36749  eV     1   --> B_2  D_4  S_4  
     e(  5 -  5) =      4.45254  eV     1   --> A_2  D_2  S_2  
     e(  6 -  6) =      9.00536  eV     1   --> A_1  D_1  S_1  
     e(  7 -  7) =     11.55021  eV     1   --> B_2  D_4  S_4  
     e(  8 -  8) =     12.71408  eV     1   --> A_1  D_1  S_1  

 **************************************************************************

 **************************************************************************

                    xk=(   0.25000,   0.43301,   0.00000  )

     Band symmetry, C_2v (mm2)  point group:

     e(  1 -  1) =    -14.32813  eV     1   --> A_1  D_1  S_1  
     e(  2 -  2) =     -9.61133  eV     1   --> B_1  D_3  S_3  
     e(  3 -  3) =     -8.03185  eV     1   --> A_1  D_1  S_1  
     e(  4 -  4) =     -1.79874  eV     1   --> B_2  D_4  S_4  
     e(  5 -  5) =      3.78201  eV     1   --> A_2  D_2  S_2  
     e(  6 -  6) =      9.76802  eV     1   --> A_1  D_1  S_1  
     e(  7 -  7) =     11.85863  eV     1   --> B_2  D_4  S_4  
     e(  8 -  8) =     13.19932  eV     1   --> A_1  D_1  S_1  

 **************************************************************************

 **************************************************************************

                    xk=(   0.26667,   0.46188,   0.00000  )

     Band symmetry, C_2v (mm2)  point group:

     e(  1 -  1) =    -13.77689  eV     1   --> A_1  D_1  S_1  
     e(  2 -  2) =    -10.08792  eV     1   --> B_1  D_3  S_3  
     e(  3 -  3) =     -8.48569  eV     1   --> A_1  D_1  S_1  
     e(  4 -  4) =     -1.22190  eV     1   --> B_2  D_4  S_4  
     e(  5 -  5) =      3.14256  eV     1   --> A_2  D_2  S_2  
     e(  6 -  6) =     10.57376  eV     1   --> A_1  D_1  S_1  
     e(  7 -  7) =     11.96398  eV     1   --> B_2  D_4  S_4  
     e(  8 -  8) =     13.63720  eV     1   --> A_1  D_1  S_1  

 **************************************************************************

 **************************************************************************

                    xk=(   0.28333,   0.49075,   0.00000  )

     Band symmetry, C_2v (mm2)  point group:

     e(  1 -  1) =    -13.20948  eV     1   --> A_1  D_1  S_1  
     e(  2 -  2) =    -10.53308  eV     1   --> B_1  D_3  S_3  
     e(  3 -  3) =     -8.89855  eV     1   --> A_1  D_1  S_1  
     e(  4 -  4) =     -0.64389  eV     1   --> B_2  D_4  S_4  
     e(  5 -  5) =      2.53813  eV     1   --> A_2  D_2  S_2  
     e(  6 -  6) =     11.41600  eV     1   --> A_1  D_1  S_1  
     e(  7 -  7) =     11.89708  eV     1   --> B_2  D_4  S_4  
     e(  8 -  8) =     13.89047  eV     1   --> B_1  D_3  S_3  

 **************************************************************************

 **************************************************************************

                    xk=(   0.30000,   0.51962,   0.00000  )

     Band symmetry, C_2v (mm2)  point group:

     e(  1 -  1) =    -12.64000  eV     1   --> A_1  D_1  S_1  
     e(  2 -  2) =    -10.94566  eV     1   --> B_1  D_3  S_3  
     e(  3 -  3) =     -9.24802  eV     1   --> A_1  D_1  S_1  
     e(  4 -  4) =     -0.07437  eV     1   --> B_2  D_4  S_4  
     e(  5 -  5) =      1.97138  eV     1   --> A_2  D_2  S_2  
     e(  6 -  6) =     11.75870  eV     1   --> B_2  D_4  S_4  
     e(  7 -  7) =     12.27658  eV     1   --> A_1  D_1  S_1  
     e(  8 -  8) =     13.93937  eV     1   --> B_1  D_3  S_3  

 **************************************************************************

 **************************************************************************

                    xk=(   0.31667,   0.54848,   0.00000  )

     Band symmetry, C_2v (mm2)  point group:

     e(  1 -  1) =    -12.10618  eV     1   --> A_1  D_1  S_1  
     e(  2 -  2) =    -11.32630  eV     1   --> B_1  D_3  S_3  
     e(  3 -  3) =     -9.51353  eV     1   --> A_1  D_1  S_1  
     e(  4 -  4) =      0.46306  eV     1   --> B_2  D_4  S_4  
     e(  5 -  5) =      1.44616  eV     1   --> A_2  D_2  S_2  
     e(  6 -  6) =     11.64001  eV     1   --> B_2  D_4  S_4  
     e(  7 -  7) =     13.10036  eV     1   --> A_1  D_1  S_1  
     e(  8 -  8) =     13.86689  eV     1   --> B_1  D_3  S_3  

 **************************************************************************

 **************************************************************************

                    xk=(   0.33333,   0.57735,   0.00000  )

     zone border point and non-symmorphic group 
     symmetry decomposition not available

 **************************************************************************

 **************************************************************************

                    xk=(   0.30000,   0.57735,   0.00000  )

     zone border point and non-symmorphic group 
     symmetry decomposition not available

 **************************************************************************

 **************************************************************************

                    xk=(   0.26667,   0.57735,   0.00000  )

     zone border point and non-symmorphic group 
     symmetry decomposition not available

 **************************************************************************

 **************************************************************************

                    xk=(   0.23333,   0.57735,   0.00000  )

     zone border point and non-symmorphic group 
     symmetry decomposition not available

 **************************************************************************

 **************************************************************************

                    xk=(   0.20000,   0.57735,   0.00000  )

     zone border point and non-symmorphic group 
     symmetry decomposition not available

 **************************************************************************

 **************************************************************************

                    xk=(   0.16667,   0.57735,   0.00000  )

     zone border point and non-symmorphic group 
     symmetry decomposition not available

 **************************************************************************

 **************************************************************************

                    xk=(   0.13333,   0.57735,   0.00000  )

     zone border point and non-symmorphic group 
     symmetry decomposition not available

 **************************************************************************

 **************************************************************************

                    xk=(   0.10000,   0.57735,   0.00000  )

     zone border point and non-symmorphic group 
     symmetry decomposition not available

 **************************************************************************

 **************************************************************************

                    xk=(   0.06667,   0.57735,   0.00000  )

     zone border point and non-symmorphic group 
     symmetry decomposition not available

 **************************************************************************

 **************************************************************************

                    xk=(   0.03333,   0.57735,   0.00000  )

     zone border point and non-symmorphic group 
     symmetry decomposition not available

 **************************************************************************

 **************************************************************************

                    xk=(   0.00000,   0.57735,   0.00000  )

     zone border point and non-symmorphic group 
     symmetry decomposition not available

 **************************************************************************

 **************************************************************************

                    xk=(   0.00000,   0.54339,   0.00000  )

     point group C_2v (mm2) 
     there are  4 classes
     the character table:

       E     C2    s_v   s_v' 
A_1    1.00  1.00  1.00  1.00
A_2    1.00  1.00 -1.00 -1.00
B_1    1.00 -1.00  1.00 -1.00
B_2    1.00 -1.00 -1.00  1.00

     the symmetry operations in each class and the name of the first element:

     E        1
                                                                 
     C2       2
                                                                 
     s_v      3
                                                                 
     s_v'     4
                                                                 

     Band symmetry, C_2v (mm2)  point group:

     e(  1 -  1) =    -13.66295  eV     1   --> A_1  D_1  S_1  
     e(  2 -  2) =    -12.00350  eV     1   --> A_1  D_1  S_1  
     e(  3 -  3) =     -5.47925  eV     1   --> B_1  D_3  S_3  
     e(  4 -  4) =     -1.53795  eV     1   --> B_2  D_4  S_4  
     e(  5 -  5) =      2.79437  eV     1   --> B_2  D_4  S_4  
     e(  6 -  6) =      8.35227  eV     1   --> A_1  D_1  S_1  
     e(  7 -  7) =     10.85481  eV     1   --> A_1  D_1  S_1  
     e(  8 -  8) =     12.68586  eV     1   --> A_1  D_1  S_1  

 **************************************************************************

 **************************************************************************

                    xk=(   0.00000,   0.50943,   0.00000  )

     Band symmetry, C_2v (mm2)  point group:

     e(  1 -  1) =    -14.18332  eV     1   --> A_1  D_1  S_1  
     e(  2 -  2) =    -11.39173  eV     1   --> A_1  D_1  S_1  
     e(  3 -  3) =     -5.41840  eV     1   --> B_1  D_3  S_3  
     e(  4 -  4) =     -1.87926  eV     1   --> B_2  D_4  S_4  
     e(  5 -  5) =      3.23163  eV     1   --> B_2  D_4  S_4  
     e(  6 -  6) =      8.38226  eV     1   --> A_1  D_1  S_1  
     e(  7 -  7) =     10.01273  eV     1   --> A_1  D_1  S_1  
     e(  8 -  8) =     12.90334  eV     1   --> B_2  D_4  S_4  

 **************************************************************************

 **************************************************************************

                    xk=(   0.00000,   0.47546,   0.00000  )

     Band symmetry, C_2v (mm2)  point group:

     e(  1 -  1) =    -14.71942  eV     1   --> A_1  D_1  S_1  
     e(  2 -  2) =    -10.70371  eV     1   --> A_1  D_1  S_1  
     e(  3 -  3) =     -5.31292  eV     1   --> B_1  D_3  S_3  
     e(  4 -  4) =     -2.33547  eV     1   --> B_2  D_4  S_4  
     e(  5 -  5) =      3.84627  eV     1   --> B_2  D_4  S_4  
     e(  6 -  6) =      8.43016  eV     1   --> A_1  D_1  S_1  
     e(  7 -  7) =      9.22492  eV     1   --> A_1  D_1  S_1  
     e(  8 -  8) =     12.21829  eV     1   --> B_2  D_4  S_4  

 **************************************************************************

 **************************************************************************

                    xk=(   0.00000,   0.44150,   0.00000  )

     Band symmetry, C_2v (mm2)  point group:

     e(  1 -  1) =    -15.23584  eV     1   --> A_1  D_1  S_1  
     e(  2 -  2) =     -9.96841  eV     1   --> A_1  D_1  S_1  
     e(  3 -  3) =     -5.17282  eV     1   --> B_1  D_3  S_3  
     e(  4 -  4) =     -2.83605  eV     1   --> B_2  D_4  S_4  
     e(  5 -  5) =      4.57584  eV     1   --> B_2  D_4  S_4  
     e(  6 -  6) =      8.38207  eV     1   --> A_1  D_1  S_1  
     e(  7 -  7) =      8.60229  eV     1   --> A_1  D_1  S_1  
     e(  8 -  8) =     11.55620  eV     1   --> B_2  D_4  S_4  

 **************************************************************************

 **************************************************************************

                    xk=(   0.00000,   0.40754,   0.00000  )

     Band symmetry, C_2v (mm2)  point group:

     e(  1 -  1) =    -15.72270  eV     1   --> A_1  D_1  S_1  
     e(  2 -  2) =     -9.21644  eV     1   --> A_1  D_1  S_1  
     e(  3 -  3) =     -5.00214  eV     1   --> B_1  D_3  S_3  
     e(  4 -  4) =     -3.35053  eV     1   --> B_2  D_4  S_4  
     e(  5 -  5) =      5.34580  eV     1   --> B_2  D_4  S_4  
     e(  6 -  6) =      7.76171  eV     1   --> A_1  D_1  S_1  
     e(  7 -  7) =      8.62018  eV     1   --> A_1  D_1  S_1  
     e(  8 -  8) =     10.92935  eV     1   --> B_2  D_4  S_4  

 **************************************************************************

 **************************************************************************

                    xk=(   0.00000,   0.37358,   0.00000  )

     Band symmetry, C_2v (mm2)  point group:

     e(  1 -  1) =    -16.17887  eV     1   --> A_1  D_1  S_1  
     e(  2 -  2) =     -8.44690  eV     1   --> A_1  D_1  S_1  
     e(  3 -  3) =     -4.78995  eV     1   --> B_1  D_3  S_3  
     e(  4 -  4) =     -3.85610  eV     1   --> B_2  D_4  S_4  
     e(  5 -  5) =      6.15628  eV     1   --> B_2  D_4  S_4  
     e(  6 -  6) =      7.13002  eV     1   --> A_1  D_1  S_1  
     e(  7 -  7) =      8.71382  eV     1   --> A_1  D_1  S_1  
     e(  8 -  8) =     10.34191  eV     1   --> B_2  D_4  S_4  

 **************************************************************************

 **************************************************************************

                    xk=(   0.00000,   0.33962,   0.00000  )

     Band symmetry, C_2v (mm2)  point group:

     e(  1 -  1) =    -16.59603  eV     1   --> A_1  D_1  S_1  
     e(  2 -  2) =     -7.66350  eV     1   --> A_1  D_1  S_1  
     e(  3 -  3) =     -4.54144  eV     1   --> B_1  D_3  S_3  
     e(  4 -  4) =     -4.32499  eV     1   --> B_2  D_4  S_4  
     e(  5 -  5) =      6.54952  eV     1   --> A_1  D_1  S_1  
     e(  6 -  6) =      6.98443  eV     1   --> B_2  D_4  S_4  
     e(  7 -  7) =      8.82852  eV     1   --> A_1  D_1  S_1  
     e(  8 -  8) =      9.80483  eV     1   --> B_2  D_4  S_4  

 **************************************************************************

 **************************************************************************

                    xk=(   0.00000,   0.30566,   0.00000  )

     Band symmetry, C_2v (mm2)  point group:

     e(  1 -  1) =    -16.97695  eV     1   --> A_1  D_1  S_1  
     e(  2 -  2) =     -6.88882  eV     1   --> A_1  D_1  S_1  
     e(  3 -  3) =     -4.76087  eV     1   --> B_2  D_4  S_4  
     e(  4 -  4) =     -4.27237  eV     1   --> B_1  D_3  S_3  
     e(  5 -  5) =      6.02266  eV     1   --> A_1  D_1  S_1  
     e(  6 -  6) =      7.79063  eV     1   --> B_2  D_4  S_4  
     e(  7 -  7) =      8.95030  eV     1   --> A_1  D_1  S_1  
     e(  8 -  8) =      9.32360  eV     1   --> B_2  D_4  S_4  

 **************************************************************************

 **************************************************************************

                    xk=(   0.00000,   0.27169,   0.00000  )

     Band symmetry, C_2v (mm2)  point group:

     e(  1 -  1) =    -17.31893  eV     1   --> A_1  D_1  S_1  
     e(  2 -  2) =     -6.11022  eV     1   --> A_1  D_1  S_1  
     e(  3 -  3) =     -5.15759  eV     1   --> B_2  D_4  S_4  
     e(  4 -  4) =     -3.97770  eV     1   --> B_1  D_3  S_3  
     e(  5 -  5) =      5.55017  eV     1   --> A_1  D_1  S_1  
     e(  6 -  6) =      8.49063  eV     1   --> B_2  D_4  S_4  
     e(  7 -  7) =      8.98066  eV     1   --> B_2  D_4  S_4  
     e(  8 -  8) =      9.06765  eV     1   --> A_1  D_1  S_1  

 **************************************************************************

 **************************************************************************

                    xk=(   0.00000,   0.23773,   0.00000  )

     Band symmetry, C_2v (mm2)  point group:

     e(  1 -  1) =    -17.62347  eV     1   --> A_1  D_1  S_1  
     e(  2 -  2) =     -5.51378  eV     1   --> B_2  D_4  S_4  
     e(  3 -  3) =     -5.36238  eV     1   --> A_1  D_1  S_1  
     e(  4 -  4) =     -3.66267  eV     1   --> B_1  D_3  S_3  
     e(  5 -  5) =      5.13266  eV     1   --> A_1  D_1  S_1  
     e(  6 -  6) =      8.39892  eV     1   --> B_2  D_4  S_4  
     e(  7 -  7) =      9.16019  eV     1   --> A_1  D_1  S_1  
     e(  8 -  8) =      9.44522  eV     1   --> B_2  D_4  S_4  

 **************************************************************************

 **************************************************************************

                    xk=(   0.00000,   0.20377,   0.00000  )

     Band symmetry, C_2v (mm2)  point group:

     e(  1 -  1) =    -17.88694  eV     1   --> A_1  D_1  S_1  
     e(  2 -  2) =     -5.82355  eV     1   --> B_2  D_4  S_4  
     e(  3 -  3) =     -4.61514  eV     1   --> A_1  D_1  S_1  
     e(  4 -  4) =     -3.34588  eV     1   --> B_1  D_3  S_3  
     e(  5 -  5) =      4.77074  eV     1   --> A_1  D_1  S_1  
     e(  6 -  6) =      8.07856  eV     1   --> B_2  D_4  S_4  
     e(  7 -  7) =      9.25165  eV     1   --> A_1  D_1  S_1  
     e(  8 -  8) =     10.14968  eV     1   --> B_2  D_4  S_4  

 **************************************************************************

 **************************************************************************

                    xk=(   0.00000,   0.16981,   0.00000  )

     Band symmetry, C_2v (mm2)  point group:

     e(  1 -  1) =    -18.11102  eV     1   --> A_1  D_1  S_1  
     e(  2 -  2) =     -6.08871  eV     1   --> B_2  D_4  S_4  
     e(  3 -  3) =     -3.94431  eV     1   --> A_1  D_1  S_1  
     e(  4 -  4) =     -3.03487  eV     1   --> B_1  D_3  S_3  
     e(  5 -  5) =      4.46420  eV     1   --> A_1  D_1  S_1  
     e(  6 -  6) =      7.79250  eV     1   --> B_2  D_4  S_4  
     e(  7 -  7) =      9.29189  eV     1   --> A_1  D_1  S_1  
     e(  8 -  8) =     10.14606  eV     1   --> A_1  D_1  S_1  

 **************************************************************************

 **************************************************************************

                    xk=(   0.00000,   0.13585,   0.00000  )

     Band symmetry, C_2v (mm2)  point group:

     e(  1 -  1) =    -18.29445  eV     1   --> A_1  D_1  S_1  
     e(  2 -  2) =     -6.30670  eV     1   --> B_2  D_4  S_4  
     e(  3 -  3) =     -3.33284  eV     1   --> A_1  D_1  S_1  
     e(  4 -  4) =     -2.74119  eV     1   --> B_1  D_3  S_3  
     e(  5 -  5) =      4.21342  eV     1   --> A_1  D_1  S_1  
     e(  6 -  6) =      7.55530  eV     1   --> B_2  D_4  S_4  
     e(  7 -  7) =      9.32360  eV     1   --> A_1  D_1  S_1  
     e(  8 -  8) =      9.90968  eV     1   --> A_1  D_1  S_1  

 **************************************************************************

 **************************************************************************

                    xk=(   0.00000,   0.10189,   0.00000  )

     Band symmetry, C_2v (mm2)  point group:

     e(  1 -  1) =    -18.43779  eV     1   --> A_1  D_1  S_1  
     e(  2 -  2) =     -6.47704  eV     1   --> B_2  D_4  S_4  
     e(  3 -  3) =     -2.83774  eV     1   --> A_1  D_1  S_1  
     e(  4 -  4) =     -2.47197  eV     1   --> B_1  D_3  S_3  
     e(  5 -  5) =      4.01825  eV     1   --> A_1  D_1  S_1  
     e(  6 -  6) =      7.36964  eV     1   --> B_2  D_4  S_4  
     e(  7 -  7) =      9.30675  eV     1   --> A_1  D_1  S_1  
     e(  8 -  8) =      9.71744  eV     1   --> A_1  D_1  S_1  

 **************************************************************************

 **************************************************************************

                    xk=(   0.00000,   0.06792,   0.00000  )

     Band symmetry, C_2v (mm2)  point group:

     e(  1 -  1) =    -18.54013  eV     1   --> A_1  D_1  S_1  
     e(  2 -  2) =     -6.60014  eV     1   --> B_2  D_4  S_4  
     e(  3 -  3) =     -2.44640  eV     1   --> A_1  D_1  S_1  
     e(  4 -  4) =     -2.27700  eV     1   --> B_1  D_3  S_3  
     e(  5 -  5) =      3.87886  eV     1   --> A_1  D_1  S_1  
     e(  6 -  6) =      7.23629  eV     1   --> B_2  D_4  S_4  
     e(  7 -  7) =      9.29103  eV     1   --> A_1  D_1  S_1  
     e(  8 -  8) =      9.56795  eV     1   --> A_1  D_1  S_1  

 **************************************************************************

 **************************************************************************

                    xk=(   0.00000,   0.03396,   0.00000  )

     Band symmetry, C_2v (mm2)  point group:

     e(  1 -  1) =    -18.60123  eV     1   --> A_1  D_1  S_1  
     e(  2 -  2) =     -6.66600  eV     1   --> B_2  D_4  S_4  
     e(  3 -  3) =     -2.20109  eV     1   --> A_1  D_1  S_1  
     e(  4 -  4) =     -2.14622  eV     1   --> B_1  D_3  S_3  
     e(  5 -  5) =      3.79529  eV     1   --> A_1  D_1  S_1  
     e(  6 -  6) =      7.15854  eV     1   --> B_2  D_4  S_4  
     e(  7 -  7) =      9.28865  eV     1   --> A_1  D_1  S_1  
     e(  8 -  8) =      9.38675  eV     1   --> B_1  D_3  S_3  

 **************************************************************************

 **************************************************************************

                    xk=(   0.00000,   0.00000,   0.00000  )

     point group D_6h(6/mmm)
     there are 12 classes
     the character table:

       E     2C6   2C3   C2    3C2'  3C2'' i     2S3   2S6   s_h   3s_d  3s_v 
A_1g   1.00  1.00  1.00  1.00  1.00  1.00  1.00  1.00  1.00  1.00  1.00  1.00
A_2g   1.00  1.00  1.00  1.00 -1.00 -1.00  1.00  1.00  1.00  1.00 -1.00 -1.00
B_1g   1.00 -1.00  1.00 -1.00  1.00 -1.00  1.00 -1.00  1.00 -1.00  1.00 -1.00
B_2g   1.00 -1.00  1.00 -1.00 -1.00  1.00  1.00 -1.00  1.00 -1.00 -1.00  1.00
E_1g   2.00  1.00 -1.00 -2.00  0.00  0.00  2.00  1.00 -1.00 -2.00  0.00  0.00
E_2g   2.00 -1.00 -1.00  2.00  0.00  0.00  2.00 -1.00 -1.00  2.00  0.00  0.00
A_1u   1.00  1.00  1.00  1.00  1.00  1.00 -1.00 -1.00 -1.00 -1.00 -1.00 -1.00
A_2u   1.00  1.00  1.00  1.00 -1.00 -1.00 -1.00 -1.00 -1.00 -1.00  1.00  1.00
B_1u   1.00 -1.00  1.00 -1.00  1.00 -1.00 -1.00  1.00 -1.00  1.00 -1.00  1.00
B_2u   1.00 -1.00  1.00 -1.00 -1.00  1.00 -1.00  1.00 -1.00  1.00  1.00 -1.00
E_1u   2.00  1.00 -1.00 -2.00  0.00  0.00 -2.00 -1.00  1.00  2.00  0.00  0.00
E_2u   2.00 -1.00 -1.00  2.00  0.00  0.00 -2.00  1.00  1.00 -2.00  0.00  0.00

     the symmetry operations in each class and the name of the first element:

     E        1
                                                                 
     2C6      5    6
                                                                 
     2C3      7    8
                                                                 
     C2       2
                                                                 
     3C2'     4   12   11
                                                                 
     3C2''    3    9   10
                                                                 
     i       13
                                                                 
     2S3     17   18
                                                                 
     2S6     19   20
                                                                 
     s_h     14
                                                                 
     3s_d    16   24   23
                                                                 
     3s_v    15   21   22
                                                                 

     Band symmetry, D_6h(6/mmm) point group:

     e(  1 -  1) =    -18.62157  eV     1   --> A_1g           
     e(  2 -  2) =     -6.68960  eV     1   --> A_2u           
     e(  3 -  4) =     -2.09033  eV     2   --> E_2g           
     e(  5 -  5) =      3.76742  eV     1   --> A_1g           
     e(  6 -  6) =      7.13209  eV     1   --> A_2u           
     e(  7 -  8) =      9.30365  eV     2   --> E_1u           

 **************************************************************************

     BANDS        :      3.16s CPU      2.61s WALL


   This run was terminated on:  19:25: 5  26May2023            

=------------------------------------------------------------------------------=
   JOB DONE.
=------------------------------------------------------------------------------=
