
     Program PWSCF v.7.2 starts on 26May2023 at 19:23:49 

     This program is part of the open-source Quantum ESPRESSO suite
     for quantum simulation of materials; please cite
         "P. Giannozzi et al., J. Phys.:Condens. Matter 21 395502 (2009);
         "P. Giannozzi et al., J. Phys.:Condens. Matter 29 465901 (2017);
         "P. Giannozzi et al., J. Chem. Phys. 152 154105 (2020);
          URL http://www.quantum-espresso.org", 
     in publications or presentations arising from this work. More details at
     http://www.quantum-espresso.org/quote

     Parallel version (MPI), running on     2 processors

     MPI processes distributed on     1 nodes
     473 MiB available memory on the printing compute node when the environment starts

     Reading input from pw.graphene.bands.in

     Current dimensions of program PWSCF are:
     Max number of different atomic species (ntypx) = 10
     Max number of k-points (npk) =  40000
     Max angular momentum in pseudopotentials (lmaxx) =  4

     Atomic positions and unit cell read from directory:
     ./tmp/Graphene_1x1_PBE.save/

     file C.pbe-rrkjus.UPF: wavefunction(s)  2S 2P renormalized

     R & G space division:  proc/nbgrp/npool/nimage =       2
     Subspace diagonalization in iterative solution of the eigenvalue problem:
     a serial algorithm will be used


     Parallelization info
     --------------------
     sticks:   dense  smooth     PW     G-vecs:    dense   smooth      PW
     Min         150      60     18                 6264     1572     318
     Max         151      61     19                 6267     1575     329
     Sum         301     121     37                12531     3147     647

     Using Slab Decomposition



     bravais-lattice index     =            4
     lattice parameter (alat)  =       4.6540  a.u.
     unit-cell volume          =     261.8973 (a.u.)^3
     number of atoms/cell      =            2
     number of atomic types    =            1
     number of electrons       =         8.00
     number of Kohn-Sham states=            8
     kinetic-energy cutoff     =      20.0000  Ry
     charge density cutoff     =     200.0000  Ry
     Exchange-correlation=  SLA  PW   PBE  PBE
                           (   1   4   3   4   0   0   0)

     celldm(1)=   4.654000  celldm(2)=   0.000000  celldm(3)=   3.000000
     celldm(4)=   0.000000  celldm(5)=   0.000000  celldm(6)=   0.000000

     crystal axes: (cart. coord. in units of alat)
               a(1) = (   1.000000   0.000000   0.000000 )  
               a(2) = (  -0.500000   0.866025   0.000000 )  
               a(3) = (   0.000000   0.000000   3.000000 )  

     reciprocal axes: (cart. coord. in units 2 pi/alat)
               b(1) = (  1.000000  0.577350 -0.000000 )  
               b(2) = (  0.000000  1.154701  0.000000 )  
               b(3) = (  0.000000 -0.000000  0.333333 )  


     PseudoPot. # 1 for C  read from file:
     ../../pseudo/C.pbe-rrkjus.UPF
     MD5 check sum: 00fb224312de0c5b6853bd333518df6f
     Pseudo is Ultrasoft, Zval =  4.0
     Generated by new atomic code, or converted to UPF format
     Using radial grid of  627 points,  4 beta functions with: 
                l(1) =   0
                l(2) =   0
                l(3) =   1
                l(4) =   1
     Q(r) pseudized with 0 coefficients 


     atomic species   valence    mass     pseudopotential
        C              4.00    12.01070     C ( 1.00)

     24 Sym. Ops., with inversion, found (12 have fractional translation)



   Cartesian axes

     site n.     atom                  positions (alat units)
         1           C   tau(   1) = (   0.0000000   0.0000000   0.0000000  )
         2           C   tau(   2) = (   0.0000000   0.5773503   0.0000000  )

     number of k points=    48
                       cart. coord. in units 2pi/alat
        k(    1) = (   0.0000000   0.0000000   0.0000000), wk =   0.0416667
        k(    2) = (   0.0166667   0.0288675   0.0000000), wk =   0.0416667
        k(    3) = (   0.0333333   0.0577350   0.0000000), wk =   0.0416667
        k(    4) = (   0.0500000   0.0866025   0.0000000), wk =   0.0416667
        k(    5) = (   0.0666667   0.1154701   0.0000000), wk =   0.0416667
        k(    6) = (   0.0833333   0.1443376   0.0000000), wk =   0.0416667
        k(    7) = (   0.1000000   0.1732051   0.0000000), wk =   0.0416667
        k(    8) = (   0.1166667   0.2020726   0.0000000), wk =   0.0416667
        k(    9) = (   0.1333333   0.2309401   0.0000000), wk =   0.0416667
        k(   10) = (   0.1500000   0.2598076   0.0000000), wk =   0.0416667
        k(   11) = (   0.1666667   0.2886751   0.0000000), wk =   0.0416667
        k(   12) = (   0.1833333   0.3175426   0.0000000), wk =   0.0416667
        k(   13) = (   0.2000000   0.3464102   0.0000000), wk =   0.0416667
        k(   14) = (   0.2166667   0.3752777   0.0000000), wk =   0.0416667
        k(   15) = (   0.2333333   0.4041452   0.0000000), wk =   0.0416667
        k(   16) = (   0.2500000   0.4330127   0.0000000), wk =   0.0416667
        k(   17) = (   0.2666667   0.4618802   0.0000000), wk =   0.0416667
        k(   18) = (   0.2833333   0.4907477   0.0000000), wk =   0.0416667
        k(   19) = (   0.3000000   0.5196152   0.0000000), wk =   0.0416667
        k(   20) = (   0.3166667   0.5484828   0.0000000), wk =   0.0416667
        k(   21) = (   0.3333333   0.5773503   0.0000000), wk =   0.0416667
        k(   22) = (   0.3000000   0.5773503   0.0000000), wk =   0.0416667
        k(   23) = (   0.2666667   0.5773503   0.0000000), wk =   0.0416667
        k(   24) = (   0.2333333   0.5773503   0.0000000), wk =   0.0416667
        k(   25) = (   0.2000000   0.5773503   0.0000000), wk =   0.0416667
        k(   26) = (   0.1666667   0.5773503   0.0000000), wk =   0.0416667
        k(   27) = (   0.1333333   0.5773503   0.0000000), wk =   0.0416667
        k(   28) = (   0.1000000   0.5773503   0.0000000), wk =   0.0416667
        k(   29) = (   0.0666667   0.5773503   0.0000000), wk =   0.0416667
        k(   30) = (   0.0333333   0.5773503   0.0000000), wk =   0.0416667
        k(   31) = (   0.0000000   0.5773503   0.0000000), wk =   0.0416667
        k(   32) = (   0.0000000   0.5433885   0.0000000), wk =   0.0416667
        k(   33) = (   0.0000000   0.5094267   0.0000000), wk =   0.0416667
        k(   34) = (   0.0000000   0.4754649   0.0000000), wk =   0.0416667
        k(   35) = (   0.0000000   0.4415031   0.0000000), wk =   0.0416667
        k(   36) = (   0.0000000   0.4075414   0.0000000), wk =   0.0416667
        k(   37) = (   0.0000000   0.3735796   0.0000000), wk =   0.0416667
        k(   38) = (   0.0000000   0.3396178   0.0000000), wk =   0.0416667
        k(   39) = (   0.0000000   0.3056560   0.0000000), wk =   0.0416667
        k(   40) = (   0.0000000   0.2716942   0.0000000), wk =   0.0416667
        k(   41) = (   0.0000000   0.2377325   0.0000000), wk =   0.0416667
        k(   42) = (   0.0000000   0.2037707   0.0000000), wk =   0.0416667
        k(   43) = (   0.0000000   0.1698089   0.0000000), wk =   0.0416667
        k(   44) = (   0.0000000   0.1358471   0.0000000), wk =   0.0416667
        k(   45) = (   0.0000000   0.1018853   0.0000000), wk =   0.0416667
        k(   46) = (   0.0000000   0.0679236   0.0000000), wk =   0.0416667
        k(   47) = (   0.0000000   0.0339618   0.0000000), wk =   0.0416667
        k(   48) = (   0.0000000   0.0000000   0.0000000), wk =   0.0416667

     Dense  grid:    12531 G-vectors     FFT dimensions: (  24,  24,  64)

     Smooth grid:     3147 G-vectors     FFT dimensions: (  15,  15,  40)

     Estimated max dynamical RAM per process >       6.77 MB

     Estimated total dynamical RAM >      13.53 MB

     The potential is recalculated from file :
     ./tmp/Graphene_1x1_PBE.save/charge-density


     negative rho (up, down):  1.264E-05 0.000E+00
     Starting wfcs are    8 randomized atomic wfcs

     Band Structure Calculation
     Davidson diagonalization with overlap

     ethr =  1.25E-10,  avg # of iterations = 28.3

     total cpu time spent up to now is        1.8 secs

     End of band structure calculation

          k = 0.0000 0.0000 0.0000 (   397 PWs)   bands (ev):

   -18.6216  -6.6896  -2.0903  -2.0903   3.7674   7.1321   9.3037   9.3037

          k = 0.0167 0.0289 0.0000 (   401 PWs)   bands (ev):

   -18.6019  -6.6664  -2.1886  -2.1355   3.7943   7.1577   9.2937   9.3876

          k = 0.0333 0.0577 0.0000 (   403 PWs)   bands (ev):

   -18.5429  -6.5990  -2.4294  -2.2728   3.8748   7.2338   9.3009   9.5653

          k = 0.0500 0.0866 0.0000 (   411 PWs)   bands (ev):

   -18.4448  -6.4900  -2.7967  -2.4994   4.0090   7.3594   9.3484   9.7154

          k = 0.0667 0.1155 0.0000 (   407 PWs)   bands (ev):

   -18.3069  -6.3258  -3.2514  -2.7832   4.1971   7.5385   9.4456   9.9127

          k = 0.0833 0.1443 0.0000 (   403 PWs)   bands (ev):

   -18.1299  -6.1154  -3.7839  -3.1280   4.4389   7.7679   9.5896  10.1554

          k = 0.1000 0.1732 0.0000 (   409 PWs)   bands (ev):

   -17.9140  -5.8604  -4.3728  -3.5391   4.7341   8.0463   9.7567  10.2260

          k = 0.1167 0.2021 0.0000 (   409 PWs)   bands (ev):

   -17.6600  -5.5605  -4.9844  -3.9884   5.0832   8.3732   9.5538   9.9803

          k = 0.1333 0.2309 0.0000 (   407 PWs)   bands (ev):

   -17.3674  -5.5970  -5.2176  -4.4737   5.4856   8.7463   8.8430  10.2522

          k = 0.1500 0.2598 0.0000 (   395 PWs)   bands (ev):

   -17.0368  -6.2138  -4.9645  -4.8286   5.9416   8.1217   9.1641  10.5896

          k = 0.1667 0.2887 0.0000 (   399 PWs)   bands (ev):

   -16.6706  -6.8367  -5.4965  -4.4050   6.4505   7.3659   9.6192  10.9456

          k = 0.1833 0.3175 0.0000 (   397 PWs)   bands (ev):

   -16.2669  -7.4355  -6.0243  -3.9394   6.6197   7.0121  10.1068  11.3523

          k = 0.2000 0.3464 0.0000 (   391 PWs)   bands (ev):

   -15.8291  -8.0115  -6.5463  -3.4425   5.8866   7.6257  10.6116  11.7864

          k = 0.2167 0.3753 0.0000 (   399 PWs)   bands (ev):

   -15.3591  -8.5772  -7.0663  -2.9194   5.1425   8.2905  11.1076  12.2384

          k = 0.2333 0.4041 0.0000 (   395 PWs)   bands (ev):

   -14.8578  -9.1087  -7.5624  -2.3675   4.4525   9.0054  11.5502  12.7141

          k = 0.2500 0.4330 0.0000 (   391 PWs)   bands (ev):

   -14.3281  -9.6113  -8.0319  -1.7987   3.7820   9.7680  11.8586  13.1993

          k = 0.2667 0.4619 0.0000 (   395 PWs)   bands (ev):

   -13.7769 -10.0879  -8.4857  -1.2219   3.1426  10.5738  11.9640  13.6372

          k = 0.2833 0.4907 0.0000 (   395 PWs)   bands (ev):

   -13.2095 -10.5331  -8.8986  -0.6439   2.5381  11.4160  11.8971  13.8905

          k = 0.3000 0.5196 0.0000 (   389 PWs)   bands (ev):

   -12.6400 -10.9457  -9.2480  -0.0744   1.9714  11.7587  12.2766  13.9394

          k = 0.3167 0.5485 0.0000 (   383 PWs)   bands (ev):

   -12.1062 -11.3263  -9.5135   0.4631   1.4462  11.6400  13.1004  13.8669

          k = 0.3333 0.5774 0.0000 (   381 PWs)   bands (ev):

   -11.6773 -11.6773  -9.6271   0.9602   0.9602  11.5932  13.6691  13.6691

          k = 0.3000 0.5774 0.0000 (   382 PWs)   bands (ev):

   -11.9957 -11.4656  -9.4837   0.5172   1.3933  11.6468  13.3961  13.5795

          k = 0.2667 0.5774 0.0000 (   396 PWs)   bands (ev):

   -12.2872 -11.4816  -9.0901   0.1026   1.7467  11.8122  13.0889  13.2419

          k = 0.2333 0.5774 0.0000 (   398 PWs)   bands (ev):

   -12.5393 -11.6097  -8.5394  -0.2518   2.0334  12.0853  12.6669  12.7879

          k = 0.2000 0.5774 0.0000 (   394 PWs)   bands (ev):

   -12.7581 -11.7702  -7.9283  -0.5511   2.2507  11.8025  12.4438  12.5084

          k = 0.1667 0.5774 0.0000 (   390 PWs)   bands (ev):

   -12.9430 -11.9277  -7.3123  -0.8122   2.4028  10.9151  12.2624  12.4447

          k = 0.1333 0.5774 0.0000 (   390 PWs)   bands (ev):

   -13.0949 -12.0669  -6.7355  -1.0275   2.5056  10.0807  12.0546  12.2226

          k = 0.1000 0.5774 0.0000 (   388 PWs)   bands (ev):

   -13.2132 -12.1793  -6.2310  -1.1889   2.5721   9.3700  11.8903  12.0487

          k = 0.0667 0.5774 0.0000 (   392 PWs)   bands (ev):

   -13.2976 -12.2624  -5.8365  -1.3093   2.6081   8.8164  11.7716  11.9235

          k = 0.0333 0.5774 0.0000 (   388 PWs)   bands (ev):

   -13.3481 -12.3120  -5.5736  -1.3808   2.6269   8.4681  11.7002  11.8484

          k = 0.0000 0.5774 0.0000 (   390 PWs)   bands (ev):

   -13.3643 -12.3296  -5.4913  -1.4053   2.6370   8.3424  11.6765  11.8230

          k = 0.0000 0.5434 0.0000 (   396 PWs)   bands (ev):

   -13.6629 -12.0035  -5.4793  -1.5380   2.7944   8.3523  10.8548  12.6859

          k = 0.0000 0.5094 0.0000 (   396 PWs)   bands (ev):

   -14.1833 -11.3917  -5.4184  -1.8793   3.2316   8.3823  10.0127  12.9033

          k = 0.0000 0.4755 0.0000 (   392 PWs)   bands (ev):

   -14.7194 -10.7037  -5.3129  -2.3355   3.8463   8.4302   9.2249  12.2183

          k = 0.0000 0.4415 0.0000 (   388 PWs)   bands (ev):

   -15.2358  -9.9684  -5.1728  -2.8361   4.5758   8.3821   8.6023  11.5562

          k = 0.0000 0.4075 0.0000 (   394 PWs)   bands (ev):

   -15.7227  -9.2164  -5.0021  -3.3505   5.3458   7.7617   8.6202  10.9293

          k = 0.0000 0.3736 0.0000 (   398 PWs)   bands (ev):

   -16.1789  -8.4469  -4.7899  -3.8561   6.1563   7.1300   8.7138  10.3419

          k = 0.0000 0.3396 0.0000 (   392 PWs)   bands (ev):

   -16.5960  -7.6635  -4.5414  -4.3250   6.5495   6.9844   8.8285   9.8048

          k = 0.0000 0.3057 0.0000 (   396 PWs)   bands (ev):

   -16.9770  -6.8888  -4.7609  -4.2724   6.0227   7.7906   8.9503   9.3236

          k = 0.0000 0.2717 0.0000 (   396 PWs)   bands (ev):

   -17.3189  -6.1102  -5.1576  -3.9777   5.5502   8.4906   8.9807   9.0677

          k = 0.0000 0.2377 0.0000 (   404 PWs)   bands (ev):

   -17.6235  -5.5138  -5.3624  -3.6627   5.1327   8.3989   9.1602   9.4452

          k = 0.0000 0.2038 0.0000 (   398 PWs)   bands (ev):

   -17.8869  -5.8235  -4.6151  -3.3459   4.7707   8.0786   9.2516  10.1497

          k = 0.0000 0.1698 0.0000 (   402 PWs)   bands (ev):

   -18.1110  -6.0887  -3.9443  -3.0349   4.4642   7.7925   9.2919  10.1461

          k = 0.0000 0.1358 0.0000 (   399 PWs)   bands (ev):

   -18.2944  -6.3067  -3.3328  -2.7412   4.2134   7.5553   9.3236   9.9097

          k = 0.0000 0.1019 0.0000 (   403 PWs)   bands (ev):

   -18.4378  -6.4770  -2.8377  -2.4720   4.0183   7.3696   9.3067   9.7174

          k = 0.0000 0.0679 0.0000 (   407 PWs)   bands (ev):

   -18.5401  -6.6001  -2.4464  -2.2770   3.8789   7.2363   9.2910   9.5680

          k = 0.0000 0.0340 0.0000 (   405 PWs)   bands (ev):

   -18.6012  -6.6660  -2.2011  -2.1462   3.7953   7.1585   9.2887   9.3867

          k = 0.0000 0.0000 0.0000 (   397 PWs)   bands (ev):

   -18.6216  -6.6896  -2.0903  -2.0903   3.7674   7.1321   9.3037   9.3037

     Writing all to output data dir ./tmp/Graphene_1x1_PBE.save/

     init_run     :      0.29s CPU      0.32s WALL (       1 calls)
     electrons    :      1.14s CPU      1.41s WALL (       1 calls)

     Called by init_run:
     wfcinit      :      0.00s CPU      0.00s WALL (       1 calls)
     potinit      :      0.07s CPU      0.09s WALL (       1 calls)
     hinit0       :      0.20s CPU      0.20s WALL (       1 calls)

     Called by electrons:
     c_bands      :      1.14s CPU      1.41s WALL (       1 calls)
     v_of_rho     :      0.01s CPU      0.01s WALL (       1 calls)
     newd         :      0.00s CPU      0.00s WALL (       1 calls)

     Called by c_bands:
     init_us_2    :      0.00s CPU      0.00s WALL (      48 calls)
     init_us_2:cp :      0.00s CPU      0.00s WALL (      48 calls)
     cegterg      :      1.09s CPU      1.36s WALL (      98 calls)

     Called by *egterg:
     cdiaghg      :      0.17s CPU      0.21s WALL (    1407 calls)
     h_psi        :      0.73s CPU      0.89s WALL (    1505 calls)
     s_psi        :      0.02s CPU      0.02s WALL (    1505 calls)
     g_psi        :      0.01s CPU      0.01s WALL (    1359 calls)

     Called by h_psi:
     h_psi:calbec :      0.05s CPU      0.05s WALL (    1505 calls)
     vloc_psi     :      0.64s CPU      0.80s WALL (    1505 calls)
     add_vuspsi   :      0.02s CPU      0.03s WALL (    1505 calls)

     General routines
     calbec       :      0.05s CPU      0.05s WALL (    1505 calls)
     fft          :      0.16s CPU      0.17s WALL (      12 calls)
     ffts         :      0.06s CPU      0.07s WALL (       1 calls)
     fftw         :      0.53s CPU      0.68s WALL (   14040 calls)
     interpolate  :      0.06s CPU      0.07s WALL (       1 calls)
     davcio       :      0.00s CPU      0.00s WALL (      96 calls)

     Parallel routines

     PWSCF        :      1.56s CPU      1.87s WALL


   This run was terminated on:  19:23:51  26May2023            

=------------------------------------------------------------------------------=
   JOB DONE.
=------------------------------------------------------------------------------=
